<?xml version="1.0"?>
<VTKFile type="UnstructuredGrid"  version="0.1"  >
<UnstructuredGrid>
<Piece  NumberOfPoints="25" NumberOfCells="32">
<Points>
<DataArray  type="Float64"  NumberOfComponents="3"  format="ascii">0 0 0  1 0 0  1 1 0  0 1 0  0.2499999999994109 0 0  0.4999999999986921 0 0  0.7499999999993406 0 0  1 0.2499999999994109 0  1 0.4999999999986921 0  1 0.7499999999993406 0  0.7500000000003471 1 0  0.5000000000020595 1 0  0.2500000000010405 1 0  0 0.7500000000003471 0  0 0.5000000000020595 0  0 0.2500000000010405 0  0.2499999999998183 0.2500000000006331 0  0.2500000000002257 0.5000000000012177 0  0.2500000000006332 0.7500000000000954 0  0.499999999999534 0.2500000000002257 0  0.5000000000003758 0.5000000000003758 0  0.5000000000012177 0.7499999999998439 0  0.7499999999995922 0.2499999999998183 0  0.7499999999998439 0.499999999999534 0  0.7500000000000953 0.7499999999995921 0  </DataArray>
</Points>
<Cells>
<DataArray  type="UInt32"  Name="connectivity"  format="ascii">0 4 15  4 15 16  14 15 16  14 16 17  13 14 17  13 17 18  3 13 18  3 12 18  4 5 16  5 16 19  16 17 19  17 19 20  17 18 20  18 20 21  12 18 21  11 12 21  5 6 19  6 19 22  19 20 22  20 22 23  20 21 23  21 23 24  11 21 24  10 11 24  1 6 22  1 7 22  7 22 23  7 8 23  8 23 24  8 9 24  9 10 24  2 9 10  </DataArray>
<DataArray  type="UInt32"  Name="offsets"  format="ascii">3 6 9 12 15 18 21 24 27 30 33 36 39 42 45 48 51 54 57 60 63 66 69 72 75 78 81 84 87 90 93 96 </DataArray>
<DataArray  type="UInt8"  Name="types"  format="ascii">5 5 5 5 5 5 5 5 5 5 5 5 5 5 5 5 5 5 5 5 5 5 5 5 5 5 5 5 5 5 5 5 </DataArray>
</Cells>
<PointData  Scalars="u"> 
<DataArray  type="Float64"  Name="u"  format="ascii">1.0000000000000000e+00  2.0000000000000000e+00  4.0000000000000000e+00  3.0000000000000000e+00  1.0624999999997053e+00  1.2499999999986922e+00  1.5624999999990110e+00  2.1249999999994107e+00  2.4999999999973843e+00  3.1249999999980225e+00  3.5625000000005209e+00  3.2500000000020592e+00  3.0625000000005205e+00  2.1250000000010409e+00  1.5000000000041189e+00  1.1250000000010405e+00  1.1875000000005567e+00  1.5625000000025697e+00  2.1875000000006231e+00  1.3749999999997795e+00  1.7500000000011611e+00  2.3750000000007812e+00  1.6874999999992242e+00  2.0624999999988614e+00  2.6874999999989519e+00  </DataArray> 
</PointData> 
</Piece>
</UnstructuredGrid>
</VTKFile>